% Model:              Maglev electromagnet small scale.mph
% Version:            COMSOL 6.2.0.415
% Date:               Mar 27 2025, 10:51
% Dimension:          1
% Nodes:              682
% Expressions:        1
% Description:        Line graph
% Arc length (mm)         Magnetic flux density norm
0                         0.729177195856747
0.5647979070104014        0.7291355241268206
0.6185199268729136        0.7291315687566745
0.6773081839823725        0.7291272355036978
1.4680866851663446        0.7290689476165845
1.4956267223867528        0.7290669179190298
1.49700250965207          0.7290668165203931
2.1973121587978426        0.7289914202509933
2.241555844745598         0.7289697700540934
2.6486334861380563        0.7291050224193509
2.7861965426141566        0.7292013496337199
4.123697296767247         0.7290136172828756
4.194927525485085         0.7290036221001475
4.691029531624622         0.728933918099586
4.9000722445823115        0.7289046030584305
6.166093342253809         0.7287270629755603
6.264236125617138         0.7287265414316163
6.325955885116741         0.7287418155798323
6.660391033361641         0.7284514220879514
7.345765037968185         0.7282277151935205
7.461184127461138         0.7282408190161432
7.512945705272621         0.7285512107464283
8.217947654689624         0.7288287532001505
8.425835189757201         0.7288206064894543
9.331344085210034         0.7287858396359419
9.652896087725168         0.7287737975169695
10.159671265358924        0.7287544180431877
10.565785572209762        0.7287385105395574
11.273067695879327        0.7287113674173015
11.792846470177736        0.7286919112226684
12.101394876028223        0.7284504787160528
12.473868326173232        0.7282143067385666
12.76787390926249         0.728509174204171
12.8746916978264          0.7288060160484221
13.16829512158111         0.728797269009403
13.277427508928369        0.7287940618624834
13.309615255842616        0.7290673278570046
14.010410506834305        0.7292180139682465
14.475487432040175        0.72913604150329
14.56014616090453         0.7291211199186897
15.365453697678873        0.7289791682356509
15.546448741556532        0.7289472773060465
16.44704180253109         0.7287885605178662
16.890585863792566        0.7287103921509639
17.42129213951513         0.7286168550074801
17.876888444444575        0.7286646723367762
18.155053661946567        0.7287894194343787
18.457857172828255        0.7287857497184921
18.950820178476306        0.7287798326388124
19.24960369159178         0.7287762989895967
19.534738705735023        0.7287728803613274
19.83057241997549         0.7287692963327748
20.33050522226476         0.7287632976726468
20.622318938739014        0.7287598476778254
20.914423749523436        0.7286694165179912
21.364582283300777        0.7285995866681267
21.39163402716271         0.7285971515854632
21.44200880905948         0.7285985432683088
21.898713012313237        0.7286425613668635
22.044042914551653        0.7286565685643319
22.44789607961539         0.7286955185813985
22.816417136082237        0.7287310261682538
22.99355654349411         0.7287480982223542
23.48728153870364         0.7287956816480424
23.504158132068056        0.7287973092303626
23.550223207964592        0.7288017474113565
24.049191292417262        0.728849880344169
24.259655760234224        0.7288701827891639
24.560420184520737        0.7288992034687524
24.930520162855643        0.728970341780429
25.65409570733305         0.7292365984615706
25.674667578046268        0.729431579923641
26.808633025264328        0.7295733807619565
26.916648653442735        0.7295689251783877
27.72114984934106         0.729085842735577
27.77479025391665         0.7286417191788648
27.85175466716865         0.7286499592212716
28.03630915040513         0.7286697878430224
28.197090879400903        0.7288305469953694
28.348886568011785        0.7289509037054241
28.703643635450845        0.728896830364686
28.77277434885751         0.7288862998719378
29.015728646300673        0.728849291307418
29.27729359868753         0.7288094375911014
29.336834580513255        0.7288003619055843
29.408330000272855        0.7287894615839466
29.843387336563204        0.7287231319517505
30.205700629363264        0.7286679279240342
30.476578281625635        0.7286266389611207
30.801841837216116        0.7285770489864556
30.983131037675548        0.7285494094716579
31.13410766003898         0.7284332825345238
31.217888237458894        0.7283401900511758
31.530940777055633        0.7284840700269526
31.60832387877153         0.728617481723005
32.02683796582683         0.7285609805595347
32.175965422281365        0.7285408477251674
32.577943826937314        0.7284865698716321
32.88551735166864         0.7284450335159606
33.11299286887704         0.7284143279262274
33.453158895178476        0.7283684109037147
33.62494687681902         0.7283452183671052
34.16271082456574         0.7282726066700421
34.19914777192725         0.7282676889907155
34.40631101158407         0.7282397293932559
34.67194992670068         0.7282038620410884
34.73035236807557         0.7279965364021341
35.27934344865475         0.7276446447361539
35.377729206056365        0.7281979965006288
36.44047686120156         0.727878471450775
36.502656556809626        0.7278257998768813
37.41254931707371         0.726625387047292
37.41895271353495         0.7261911383090892
37.427112973885386        0.7261852870025401
37.78477715408026         0.7259289638147042
38.07586561090571         0.7246966886771309
38.29062702927604         0.7234264413902946
38.755610849855316        0.7228925595307014
38.79375575116086         0.7228487747357163
38.81032100551077         0.7237504790364657
39.39752466373453         0.7233488588636728
39.47873376342288         0.7231655702366028
39.72750897370328         0.722604014973455
39.85885336184097         0.7223075339359732
40.35252171513565         0.7211960965265312
40.46192901144994         0.7209498305683757
40.70565962798983         0.7203999583854852
40.92325770955637         0.7199091000444848
41.02093447304773         0.7196893395928474
41.52633335916531         0.7185521155383252
41.65362444496719         0.7182650320670244
41.89472242476046         0.7177212764338109
41.98766205727179         0.7185777767912669
42.076307054060266        0.7188278679498541
42.58637927931443         0.7141384336239698
42.909718248837834        0.7111657627207
43.15040266953643         0.7089504775705756
43.54724440616711         0.7053016055271368
43.678792567357746        0.7040935790793563
44.05843807195164         0.7006072376042689
44.3131432818011          0.698269019930081
44.380655600944664        0.6976499401647475
44.8563886957601          0.6932822539160114
45.018181758273954        0.689042361810979
45.656961264044725        0.6809244249987614
45.95966300298531         0.6838002714894844
46.15183255688463         0.6854970935626103
47.008344013042006        0.6687620111358493
47.25892740383708         0.6638659485442917
48.12299964098706         0.6471511807823989
48.49667871247716         0.639944405305117
49.189503203869805        0.6264688152505865
49.6037735594296          0.611106181063503
49.87773556267001         0.594665463218382
50.313804614315174        0.5838134026724225
50.32576998255223         0.5870795013946405
50.36327868536543         0.5859061175720848
50.815292518338225        0.5717658556298834
50.959486040217655        0.5672844353640328
51.33319402589751         0.5556709107570641
51.46235679817667         0.5516317194341553
51.64259939952605         0.545995154512683
51.82271656168351         0.5403622591363888
52.28828082542856         0.5259091983322379
52.340618069242794        0.5242845637756485
52.60393861474351         0.5160527959364463
52.83014060502883         0.5079075144446175
53.41010347600346         0.48886591160825116
53.47070511941652         0.48698928596908514
53.94238315786268         0.4723830302550881
54.0821854091316          0.46805412124175355
54.101188637883666        0.4674657921336957
54.1278623107287          0.46663953823748955
54.832337912993026        0.4448174324279624
55.33423021323439         0.42927907970332857
55.52342307487325         0.42394770997371706
55.81238119178869         0.4145076086382302
56.08477012086155         0.40849337172425937
56.429114358416314        0.40270565583970264
56.58967309698471         0.3918432943031501
57.036098065125344        0.37519912998779736
57.61630658352047         0.36207179179313487
58.096654681704564        0.351203816339298
58.674336812597744        0.33820241684790436
59.56108789286904         0.3182772738324276
59.80629640314913         0.3127353786737939
60.62164450944829         0.29430790355174563
60.759000528210805        0.29122602628174055
61.409293800734815        0.27667254580549766
61.93325899225147         0.26493315092096087
62.08607772061279         0.265138942958011
62.50593524425034         0.26172552143082906
63.06943227284958         0.2523212007702739
63.175998253787384        0.2505391738504502
63.40391989280177         0.24670961852480938
63.66126433002202         0.24238581452073127
63.78158709757432         0.24037606338561088
64.33132733955904         0.23456406192674517
64.62857696707792         0.234334291850883
64.96137948686552         0.22662598788543467
65.53211698744923         0.21728332061623198
65.92050154127404         0.21344559482130343
66.29509324422055         0.20971915744754915
66.39980687152453         0.20867746653112584
67.18901116956016         0.20089069380785735
67.35892892593301         0.19921432201735972
67.41095330992206         0.19701693078574956
68.04283621004            0.1901950100973835
68.90290379555174         0.18325830151401115
69.46123043194345         0.17875522613223252
69.87142732827964         0.17541958983060457
70.17004940636915         0.17299183246377114
70.57650947932729         0.1697231538647346
71.5884436282726          0.16158536194775996
72.07616252629974         0.1576239254834896
72.29726260269828         0.15582745106148357
72.33190134663718         0.15554966258335565
73.71565682460174         0.14679541863270723
73.79425034006468         0.1486825082869369
73.91942074944632         0.14797097060508752
74.4268308105143          0.14348728380160003
74.70318742351557         0.14050554347056324
75.50696752638082         0.13649710869816234
75.70682645945548         0.13550041632663484
76.39680765520626         0.1320435155867808
76.43280325659563         0.13186322224242858
76.69182430858224         0.13057316701552923
77.43644229253555         0.12765244133040643
77.4786431168568          0.12825090059481947
77.62527279532004         0.1275873971964265
77.99275906318914         0.12595107923488386
78.17187028924192         0.12417581389735584
78.45974639658175         0.12212586492214333
79.72258604637635         0.11724658978020423
79.95186718450745         0.11635970959523195
80.35347705593054         0.11480142630439034
80.55891949950474         0.11400545762353756
81.90419281306495         0.1088130534078605
82.05104028743041         0.10824555933363084
82.5350838226191          0.10636820409917637
82.65809260242769         0.10589189642631931
84.08579957975353         0.1003884228240206
84.15021339035337         0.10093931481415193
84.25469025528407         0.10146710840289694
84.8543610056648          0.09919969078486107
85.21037351860107         0.09754606226612003
86.32770463698547         0.0945787789898937
86.42825794826925         0.09431136765706755
86.63047931854632         0.09377358043294412
87.03384336189933         0.09269985281623754
87.31110241114911         0.09196305791387667
88.50718699321999         0.08878804357908249
88.58158580073906         0.08859023317526808
88.7312082110944          0.08804065542855241
89.22888641914997         0.08682182365105096
90.21473050830791         0.0847127428629999
90.74978331166983         0.08356806937905442
91.01989105316851         0.08298895013821717
91.47871318897671         0.08200529157149027
92.38758780562624         0.08006160044741431
92.99961008149658         0.07875274855128461
93.3085738952426          0.07809039351137896
93.72853995880341         0.07719014510604208
94.5604451029446          0.07541185100965092
95.2494368513233          0.07435028713656572
95.45537298346656         0.07440744520045839
95.77571989850745         0.07340258607154847
96.15166009929575         0.07233471558301337
97.15350235980993         0.07069947718467207
97.51105960512476         0.07011503962981981
98.07904379361561         0.06918656618986836
98.42425207423945         0.06862317178123895
99.45682625491808         0.0669381904892356
99.78365158006845         0.06655889267633203
100.18262964368145        0.06614808588532747
100.4255598724167         0.06579391615867117
100.7046934605159         0.06522297672008626
100.91702212411712        0.06475167894356867
102.08746259815337        0.06303672712154587
102.23009685375405        0.06282751370407566
103.01635388993355        0.06167425717373908
103.22868255353475        0.06136319535494689
104.39912302757097        0.059648498260043495
104.54175728317165        0.05943929037446852
105.32801431935115        0.05828606756143487
105.54034298295235        0.057975060347232536
106.71078345698862        0.056260664254657124
106.85341771258925        0.05616034161096373
107.06574637619048        0.05603359246991861
108.23618685022669        0.05473471756329814
109.02244388640617        0.05386117714462657
109.16507814200685        0.05370271610145277
109.37740680560808        0.053467120064835144
110.54784727964432        0.05216842052939383
111.33410431582377        0.05154065876400825
111.43320696071669        0.051676088610642934
111.66103576526103        0.05115311654013457
112.43371996234134        0.050119006311530746
113.37586725898916        0.049186132384400325
113.64479180851731        0.04891932381299557
113.97269619467863        0.04859399856474239
114.74538039175891        0.04782910138675008
115.6875276884067         0.046896448938075645
115.95645223793491        0.04662965102872719
116.28435662409623        0.046304339432892735
117.05704082117649        0.045539652125967896
117.9991881178243         0.044607255576740584
118.26811266735251        0.04471825364971693
118.47870088066259        0.04490396376396514
118.62478450482303        0.044365065693559316
118.90455808406352        0.0437488571890005
119.04947046950548        0.04363952730463481
119.0997377289286         0.043612687930433366
120.16621107557245        0.04278239295138857
120.97712775982899        0.04214185950970041
121.16470578348952        0.0419936938603643
121.41139815834617        0.041799079636178224
122.4778715049901         0.04091070928622832
122.70091961898845        0.04067705587009176
123.02064030112876        0.04065948312584906
123.4286443973549         0.040603106462621635
123.54312335525066        0.040323661660747336
123.80041730410423        0.039943170469661754
125.21144550983803        0.0389157625258582
125.31066318474845        0.03884336015422339
125.85478378466831        0.03844630327055469
126.11207773352186        0.03825901514457146
127.52310593925563        0.037231906541594556
127.62232361416608        0.03715951069213083
128.1664442140859         0.03676249216854804
128.42373816293946        0.036575266398475186
129.8347663686732         0.03554849976214286
129.93398404358365        0.035638345512552794
130.20777053826433        0.035636611142472505
130.41837162972462        0.035303948797282964
131.1812103504848         0.03464384688038262
131.75619534094238        0.03430180910043122
132.31148551117315        0.033971262517916934
132.7300320591422         0.03372210826550396
133.49287077990243        0.03326835356515994
134.06785577036           0.03292633875266146
134.62314594059077        0.0326460288315362
135.0416924885598         0.03244463426795946
135.9609696518086         0.031894104399974345
136.3795161997776         0.0316438450926739
136.9348063700084         0.03131066807163853
137.35335291797742        0.031059061770115942
138.2726300812262         0.03050874417754461
138.69117662919518        0.03025860201409824
139.246466799426          0.029925496869232036
139.66501334739505        0.029673916012475633
140.5842905106438         0.029123841549391922
141.00283705861278        0.029004107238911746
141.54550625694404        0.02885994024490923
141.77068170862592        0.028742767636866444
141.97978450356342        0.02851964964787186
142.3376942687659         0.02824222966101378
143.73308616919795        0.0275999591749736
143.84706658566668        0.027547401896219306
144.29144493298102        0.02734250156470725
144.64935469818346        0.027177793638886463
146.04474659861557        0.026535642661258622
146.15872701508434        0.026544215113809104
146.48931541806624        0.026470095218810944
146.61872165363025        0.026358520847965212
147.0081279830159         0.026132803387026084
147.19536026894303        0.026052508167208884
148.1797950515977         0.025630805965150126
148.75643366691045        0.02538387919672494
148.93038208304785        0.02530930478432574
149.31978841243347        0.025142304713840078
149.50702069836058        0.025062008625699052
150.4914554810153         0.024640339328219192
151.06809409632805        0.024393438386852394
151.24204251246542        0.024318864992782643
151.63144884185107        0.02415186291893522
151.8186811277782         0.024071565867548418
152.8031159104329         0.023649933630174404
153.37975452574562        0.023339761487732095
153.55370294188302        0.023214815181536327
154.75299784692075        0.022789868655571973
155.11477633985047        0.022661679572892373
155.69141495516328        0.02245733017836387
155.86536337130065        0.022395684497871687
157.06465827633838        0.021970746149016614
157.42643676926807        0.021903782871740753
157.67894084433829        0.021865362400092944
157.92086528477327        0.02173006428310078
158.0875254593738         0.02163000164634076
159.4581996837026         0.021137298534098542
159.62485985830315        0.021077544793698152
160.23252571419087        0.020858658711116293
160.3991858887914         0.02079846012473103
161.76986011312013        0.020305884373052373
161.93652028772073        0.020246153598418793
162.54418614360844        0.020027286842597507
162.71084631820904        0.01996708487700892
164.08152054253776        0.019474652953110436
164.24818071713833        0.019488610540132026
164.4136468188702         0.01951095316117643
164.7075139686779         0.01941757547990817
164.99594628278004        0.019230959479128736
165.8099447796816         0.018903116042915006
166.33952929581775        0.018749673550821192
166.92603087716472        0.01857964165913798
167.30760671219767        0.01846901674874769
168.1216052090992         0.018233179463844652
168.65118972523538        0.0180797445682181
169.23769130658235        0.01793090734039878
169.4594707702145         0.01789007133128994
169.61926714161527        0.017845377814670466
170.58127431962004        0.01757750088237462
170.96285015465298        0.017471539036344134
171.54935173599995        0.017307983445341613
171.77113119963212        0.017245951930472826
171.9309275710329         0.017201257030295024
172.89293474903766        0.016933439021469824
173.2745105840706         0.016827512973124705
173.86101216541755        0.016663975082514125
174.08279162904967        0.016601941640760908
174.24258800045047        0.0165572453522258
175.20459517845526        0.01628949336691017
175.58617101348818        0.01619757307207574
176.11311335618979        0.016062138720200608
176.1206077532718         0.016099818127771816
176.13339848207607        0.016136855511101486
176.57426011923536        0.016039291094927223
176.9434621146022         0.015887445862645653
177.4717451124958         0.01569937380191219
178.30210467604695        0.01550757825548659
178.8303876739406         0.01538522835968111
179.2551225440198         0.015287038252250865
179.78340554191342        0.015165265171627907
180.61376510546455        0.014973486815161238
181.14204810335818        0.014861441934850242
181.56678297343737        0.014772967316967374
182.31991446188746        0.014597998048484877
182.92542553488218        0.014457324300109337
183.4537085327758         0.014334471366934783
183.878443402855          0.014235688844693466
184.6315748913051         0.014060740153085796
185.23708596429975        0.013920082948336097
185.76536896219335        0.013797235267794425
186.1901038322725         0.013698456121874036
186.94323532072266        0.013523530493376965
187.54874639371732        0.013442513726580911
187.83588465731344        0.013444261387830175
188.03874334507248        0.013341969047774543
188.25732351129108        0.013240290607905842
189.7585999411226         0.012963253068758408
189.97718010734124        0.012922777772214945
190.35040377449002        0.01285380527781263
190.56898394070865        0.012813558706737761
192.07026037054027        0.012536558078058365
192.2888405367589         0.012523070876018179
192.60419887155282        0.012495014879834562
192.84592407794167        0.012427835249851069
193.3476230590811         0.01231185008983672
194.31811156233493        0.012136153177506827
194.8715049654004         0.012035967021878667
195.15758450735927        0.011984126586179504
195.65928348849872        0.011893210069355818
196.62977199175253        0.011717529553378113
197.183165394818          0.011617352747302374
197.46924493677687        0.011565513716319375
197.9709439179163         0.01147459934850822
198.9414324211701         0.011298937062469067
199.4948258242356         0.011191233480811268
199.78090536619447        0.01114229101211419
200.75139386944835        0.011001895057004718
201.3047872725138         0.01092183826589986
201.80648625365325        0.010849226965573874
202.09256579561213        0.010807821788902262
203.06305429886595        0.010667430447150785
203.61644770193146        0.010630447788439105
203.9101114104167         0.010626999128605511
204.24009111172603        0.01057457679276522
204.51594183036192        0.010503439314179084
205.7925935213916         0.010291333704530921
205.87064823293088        0.0102799850019113
206.0145056306397         0.010259068970142879
206.60569015053142        0.010173547891495532
206.82760225977955        0.010141648287205977
208.1042539508092         0.009957168928668374
208.18230866234845        0.009945818431257716
208.3261660600573         0.00992489909163045
208.91735057994902        0.009839380928961878
209.13926268919712        0.00980749147572587
210.41591438022675        0.009680784762737944
210.6256815518361         0.009713866375500466
210.83706420460405        0.009690249664226604
210.99682995446676        0.00960299318246528
211.14438983943316        0.00951937209218329
211.62060373532003        0.009450582611044717
211.6424072103904         0.009431736800437487
213.14614182058986        0.009253286899124955
213.15355649045864        0.009252405788215106
213.16794529566025        0.009250695916640626
213.9322641647377         0.009159968461653787
213.954067639808          0.00915738398012819
215.45780225000746        0.008978937245496924
215.46521691987624        0.008978056101953135
215.47960572507776        0.008979102298798822
216.24392459415523        0.008893968925922225
217.72715115901258        0.008723568179815363
217.769462679425          0.008718707213312995
217.7912661544954         0.008716200110458839
218.55558502357283        0.008628312906825144
220.0388115884301         0.008457926479993313
220.08112310884255        0.008453065921972232
220.1029265839129         0.008450558894123349
220.86724545299037        0.008362674215108033
222.35047201784772        0.008192303502076883
222.3927835382602         0.008185292681202713
222.4057732027414         0.008182015273695612
222.43930563843927        0.008179002426102614
223.20852251859898        0.008098623683854202
224.1727482454961         0.007997188920867834
224.5332564986859         0.007963717186222415
225.25160439894694        0.00789700200485751
225.52018294801658        0.007872058288024217
226.4844086749137         0.007791879213438629
226.62251215138372        0.007787123066395028
227.0315623080969         0.007745364876852539
227.2632769039239         0.0077219322130689695
227.40581296660957        0.007715799518985046
227.61343697138395        0.00770479673347903
227.67272828289094        0.0076991547666919544
229.20397203339064        0.0075542440598212685
229.4708873496719         0.007529053181804772
229.71747339602712        0.007505656070480209
229.92509740080146        0.007485899148191422
229.9843887123085         0.007480257152049802
231.51563246280818        0.007335387142136271
231.78254777908944        0.007310206392383775
232.02913382544477        0.007286812319290237
232.23675783021906        0.007267055318540127
232.29604914172603        0.007261413299992261
233.82729289222584        0.007116587744729011
234.0942082085071         0.007102898523975828
234.28056431896215        0.007101407465153966
234.671705491558          0.007054820364098334
234.88728924576333        0.007019707088136986
236.25022492069104        0.006919579242049998
236.31859711203526        0.006914542606324308
236.46580867489632        0.006903698270313388
236.98336592097553        0.0068656492077738005
237.19894967518087        0.006849845364520981
238.56188535010858        0.006749723847823628
238.63025754145292        0.006744687032743713
238.77746910431392        0.006755061127010511
239.0670352603521         0.006756015705863435
239.3321003344263         0.006736704081407582
239.49277436188277        0.006711748469965606
239.60565653963027        0.006689724841800569
240.9810346900848         0.006581611228094468
241.0434882775529         0.006576692986931301
241.8044347913003         0.006516766257357251
241.91731696904787        0.006507894747406775
243.29269511950235        0.006399802565001169
243.35514870697045        0.006394884779448832
244.11609522071785        0.006334963742951178
244.22897739846542        0.006326094146205894
245.6043555489199         0.0062180252746600944
245.66680913638805        0.006219182288021756
245.77427439576002        0.006219193294085895
247.11007744454446        0.006143825945483153
247.87076209818701        0.006100854886319413
247.9085851037877         0.006098718340301818
247.9750043301433         0.0060949712929499215
249.35185341194392        0.006017296213172577
250.13591208575883        0.005970215275489769
250.14550441438962        0.005966970507194187
250.15081149959218        0.00596671992114474
251.62417241396088        0.0058970743786328295
251.63907182779428        0.005896369519621654
252.4475725151765         0.005858165490549404
252.45716484380716        0.005857712600742218
252.46247192900984        0.005857462033347517
253.93583284337853        0.005787819489425067
253.95073225721183        0.005787114645603128
254.75923294459403        0.005748912787187303
254.76882527322482        0.005748459932924986
254.77413235842744        0.0057482093851959635
256.2474932727962         0.005678570014027624
256.2623926866294         0.005696504218709584
256.3167566364497         0.005712312349672502
257.1602302904686         0.0056403952711539624
257.27945629404917        0.005608188499448193
257.58908551867717        0.005597197196533621
257.818827015024          0.005589032655847149
257.86894891368837        0.005586199826217673
259.0225686675584         0.005535896345465547
259.1549888146103         0.005530247251942072
260.00189898437714        0.005494081666284355
260.07078324472127        0.005491137798841201
260.1219192526146         0.005488952428365303
261.30443101161467        0.00544513405352451
261.33031553621026        0.00545050010788722
261.42489238004936        0.005445750714513963
261.70119030270394        0.00543202414108916
261.830344027032          0.005429046983421005
262.49715654131654        0.005404823567814521
263.50644779138406        0.0053625086167923015
263.7236525248005         0.005353380994811358
264.11692826561193        0.005336857529535669
264.65950640209843        0.005314116583033921
265.793032029964          0.005266607396931112
265.963368416605          0.005259450899757544
266.40351250419195        0.005240962621184754
266.8218562628804         0.005223434255365174
268.07961626854393        0.0051707348256865154
268.2030843084096         0.005165355374341082
268.7393462692303         0.005149651571852638
269.81720100871325        0.005118342898197173
270.32103758808034        0.005103627042253602
270.405104186081          0.005101171658908077
270.58494738285935        0.005095947582630981
270.7132978709438         0.0050922359107931645
271.25716318897304        0.005076508276137294
272.0192208863847         0.00505437543545087
272.3754400775982         0.005043971732942125
272.6071240637525         0.0050372051933298785
273.1027643026021         0.005038923166952088
273.5941701146123         0.005039974261080419
273.9696352202826         0.00500836814545055
274.4877137682708         0.004978347514603453
275.0365892713239         0.0049676629782969845
275.284297327872          0.004962841036510786
275.518106688187          0.004958357958590684
276.00355246087287        0.0049492197597017906
276.43052953216335        0.004941182195841956
276.636178116464          0.004937244380502259
276.8540513918554         0.004933004738201466
277.43276167606524        0.004921743491972745
277.97900100006774        0.004911272868265476
278.7846424646572         0.00491065519279925
278.8337655412318         0.004924167469271434
279.2903049772084         0.00489539358556069
279.3565054842656         0.004875117959307634
280.74684654382133        0.004850161291440273
280.85383560631146        0.004848238859715424
281.8076140961354         0.004831097861926624
282.0172279840139         0.004827335523815917